375
Timestep: 1 
O 1.2361419 1.0137761 -0.0612424 
H 0.5104418 0.8944555 0.551419 
H 1.9926927 1.1973129 0.4956931 
O 1.2361419 1.0137761 -0.0612424 
H 0.5104418 0.8944555 0.551419 
H 3.9926927 3.1973129 2.4956931 
O 1.2361419 1.0137761 -0.0612424 
H 0.5104418 0.8944555 0.551419 
H 5.9926927 5.1973129 4.4956931 
O 1.2361419 1.0137761 -0.0612424 
H 0.5104418 0.8944555 0.551419 
H 7.9926927 7.1973129 6.4956931 
O 1.2361419 1.0137761 -0.0612424 
H 0.5104418 0.8944555 0.551419 
H 9.9926927 9.1973129 8.4956931 
O 1.2361419 1.0137761 -0.0612424 
H 2.5104417999999997 2.8944555 2.551419 
H 1.9926927 1.1973129 0.4956931 
O 1.2361419 1.0137761 -0.0612424 
H 2.5104417999999997 2.8944555 2.551419 
H 3.9926927 3.1973129 2.4956931 
O 1.2361419 1.0137761 -0.0612424 
H 2.5104417999999997 2.8944555 2.551419 
H 5.9926927 5.1973129 4.4956931 
O 1.2361419 1.0137761 -0.0612424 
H 2.5104417999999997 2.8944555 2.551419 
H 7.9926927 7.1973129 6.4956931 
O 1.2361419 1.0137761 -0.0612424 
H 2.5104417999999997 2.8944555 2.551419 
H 9.9926927 9.1973129 8.4956931 
O 1.2361419 1.0137761 -0.0612424 
H 4.5104418 4.8944555 4.551419 
H 1.9926927 1.1973129 0.4956931 
O 1.2361419 1.0137761 -0.0612424 
H 4.5104418 4.8944555 4.551419 
H 3.9926927 3.1973129 2.4956931 
O 1.2361419 1.0137761 -0.0612424 
H 4.5104418 4.8944555 4.551419 
H 5.9926927 5.1973129 4.4956931 
O 1.2361419 1.0137761 -0.0612424 
H 4.5104418 4.8944555 4.551419 
H 7.9926927 7.1973129 6.4956931 
O 1.2361419 1.0137761 -0.0612424 
H 4.5104418 4.8944555 4.551419 
H 9.9926927 9.1973129 8.4956931 
O 1.2361419 1.0137761 -0.0612424 
H 6.5104418 6.8944555 6.551419 
H 1.9926927 1.1973129 0.4956931 
O 1.2361419 1.0137761 -0.0612424 
H 6.5104418 6.8944555 6.551419 
H 3.9926927 3.1973129 2.4956931 
O 1.2361419 1.0137761 -0.0612424 
H 6.5104418 6.8944555 6.551419 
H 5.9926927 5.1973129 4.4956931 
O 1.2361419 1.0137761 -0.0612424 
H 6.5104418 6.8944555 6.551419 
H 7.9926927 7.1973129 6.4956931 
O 1.2361419 1.0137761 -0.0612424 
H 6.5104418 6.8944555 6.551419 
H 9.9926927 9.1973129 8.4956931 
O 1.2361419 1.0137761 -0.0612424 
H 8.5104418 8.8944555 8.551419 
H 1.9926927 1.1973129 0.4956931 
O 1.2361419 1.0137761 -0.0612424 
H 8.5104418 8.8944555 8.551419 
H 3.9926927 3.1973129 2.4956931 
O 1.2361419 1.0137761 -0.0612424 
H 8.5104418 8.8944555 8.551419 
H 5.9926927 5.1973129 4.4956931 
O 1.2361419 1.0137761 -0.0612424 
H 8.5104418 8.8944555 8.551419 
H 7.9926927 7.1973129 6.4956931 
O 1.2361419 1.0137761 -0.0612424 
H 8.5104418 8.8944555 8.551419 
H 9.9926927 9.1973129 8.4956931 
O 3.2361419 3.0137761000000003 1.9387576 
H 0.5104418 0.8944555 0.551419 
H 1.9926927 1.1973129 0.4956931 
O 3.2361419 3.0137761000000003 1.9387576 
H 0.5104418 0.8944555 0.551419 
H 3.9926927 3.1973129 2.4956931 
O 3.2361419 3.0137761000000003 1.9387576 
H 0.5104418 0.8944555 0.551419 
H 5.9926927 5.1973129 4.4956931 
O 3.2361419 3.0137761000000003 1.9387576 
H 0.5104418 0.8944555 0.551419 
H 7.9926927 7.1973129 6.4956931 
O 3.2361419 3.0137761000000003 1.9387576 
H 0.5104418 0.8944555 0.551419 
H 9.9926927 9.1973129 8.4956931 
O 3.2361419 3.0137761000000003 1.9387576 
H 2.5104417999999997 2.8944555 2.551419 
H 1.9926927 1.1973129 0.4956931 
O 3.2361419 3.0137761000000003 1.9387576 
H 2.5104417999999997 2.8944555 2.551419 
H 3.9926927 3.1973129 2.4956931 
O 3.2361419 3.0137761000000003 1.9387576 
H 2.5104417999999997 2.8944555 2.551419 
H 5.9926927 5.1973129 4.4956931 
O 3.2361419 3.0137761000000003 1.9387576 
H 2.5104417999999997 2.8944555 2.551419 
H 7.9926927 7.1973129 6.4956931 
O 3.2361419 3.0137761000000003 1.9387576 
H 2.5104417999999997 2.8944555 2.551419 
H 9.9926927 9.1973129 8.4956931 
O 3.2361419 3.0137761000000003 1.9387576 
H 4.5104418 4.8944555 4.551419 
H 1.9926927 1.1973129 0.4956931 
O 3.2361419 3.0137761000000003 1.9387576 
H 4.5104418 4.8944555 4.551419 
H 3.9926927 3.1973129 2.4956931 
O 3.2361419 3.0137761000000003 1.9387576 
H 4.5104418 4.8944555 4.551419 
H 5.9926927 5.1973129 4.4956931 
O 3.2361419 3.0137761000000003 1.9387576 
H 4.5104418 4.8944555 4.551419 
H 7.9926927 7.1973129 6.4956931 
O 3.2361419 3.0137761000000003 1.9387576 
H 4.5104418 4.8944555 4.551419 
H 9.9926927 9.1973129 8.4956931 
O 3.2361419 3.0137761000000003 1.9387576 
H 6.5104418 6.8944555 6.551419 
H 1.9926927 1.1973129 0.4956931 
O 3.2361419 3.0137761000000003 1.9387576 
H 6.5104418 6.8944555 6.551419 
H 3.9926927 3.1973129 2.4956931 
O 3.2361419 3.0137761000000003 1.9387576 
H 6.5104418 6.8944555 6.551419 
H 5.9926927 5.1973129 4.4956931 
O 3.2361419 3.0137761000000003 1.9387576 
H 6.5104418 6.8944555 6.551419 
H 7.9926927 7.1973129 6.4956931 
O 3.2361419 3.0137761000000003 1.9387576 
H 6.5104418 6.8944555 6.551419 
H 9.9926927 9.1973129 8.4956931 
O 3.2361419 3.0137761000000003 1.9387576 
H 8.5104418 8.8944555 8.551419 
H 1.9926927 1.1973129 0.4956931 
O 3.2361419 3.0137761000000003 1.9387576 
H 8.5104418 8.8944555 8.551419 
H 3.9926927 3.1973129 2.4956931 
O 3.2361419 3.0137761000000003 1.9387576 
H 8.5104418 8.8944555 8.551419 
H 5.9926927 5.1973129 4.4956931 
O 3.2361419 3.0137761000000003 1.9387576 
H 8.5104418 8.8944555 8.551419 
H 7.9926927 7.1973129 6.4956931 
O 3.2361419 3.0137761000000003 1.9387576 
H 8.5104418 8.8944555 8.551419 
H 9.9926927 9.1973129 8.4956931 
O 5.2361419 5.0137761 3.9387576 
H 0.5104418 0.8944555 0.551419 
H 1.9926927 1.1973129 0.4956931 
O 5.2361419 5.0137761 3.9387576 
H 0.5104418 0.8944555 0.551419 
H 3.9926927 3.1973129 2.4956931 
O 5.2361419 5.0137761 3.9387576 
H 0.5104418 0.8944555 0.551419 
H 5.9926927 5.1973129 4.4956931 
O 5.2361419 5.0137761 3.9387576 
H 0.5104418 0.8944555 0.551419 
H 7.9926927 7.1973129 6.4956931 
O 5.2361419 5.0137761 3.9387576 
H 0.5104418 0.8944555 0.551419 
H 9.9926927 9.1973129 8.4956931 
O 5.2361419 5.0137761 3.9387576 
H 2.5104417999999997 2.8944555 2.551419 
H 1.9926927 1.1973129 0.4956931 
O 5.2361419 5.0137761 3.9387576 
H 2.5104417999999997 2.8944555 2.551419 
H 3.9926927 3.1973129 2.4956931 
O 5.2361419 5.0137761 3.9387576 
H 2.5104417999999997 2.8944555 2.551419 
H 5.9926927 5.1973129 4.4956931 
O 5.2361419 5.0137761 3.9387576 
H 2.5104417999999997 2.8944555 2.551419 
H 7.9926927 7.1973129 6.4956931 
O 5.2361419 5.0137761 3.9387576 
H 2.5104417999999997 2.8944555 2.551419 
H 9.9926927 9.1973129 8.4956931 
O 5.2361419 5.0137761 3.9387576 
H 4.5104418 4.8944555 4.551419 
H 1.9926927 1.1973129 0.4956931 
O 5.2361419 5.0137761 3.9387576 
H 4.5104418 4.8944555 4.551419 
H 3.9926927 3.1973129 2.4956931 
O 5.2361419 5.0137761 3.9387576 
H 4.5104418 4.8944555 4.551419 
H 5.9926927 5.1973129 4.4956931 
O 5.2361419 5.0137761 3.9387576 
H 4.5104418 4.8944555 4.551419 
H 7.9926927 7.1973129 6.4956931 
O 5.2361419 5.0137761 3.9387576 
H 4.5104418 4.8944555 4.551419 
H 9.9926927 9.1973129 8.4956931 
O 5.2361419 5.0137761 3.9387576 
H 6.5104418 6.8944555 6.551419 
H 1.9926927 1.1973129 0.4956931 
O 5.2361419 5.0137761 3.9387576 
H 6.5104418 6.8944555 6.551419 
H 3.9926927 3.1973129 2.4956931 
O 5.2361419 5.0137761 3.9387576 
H 6.5104418 6.8944555 6.551419 
H 5.9926927 5.1973129 4.4956931 
O 5.2361419 5.0137761 3.9387576 
H 6.5104418 6.8944555 6.551419 
H 7.9926927 7.1973129 6.4956931 
O 5.2361419 5.0137761 3.9387576 
H 6.5104418 6.8944555 6.551419 
H 9.9926927 9.1973129 8.4956931 
O 5.2361419 5.0137761 3.9387576 
H 8.5104418 8.8944555 8.551419 
H 1.9926927 1.1973129 0.4956931 
O 5.2361419 5.0137761 3.9387576 
H 8.5104418 8.8944555 8.551419 
H 3.9926927 3.1973129 2.4956931 
O 5.2361419 5.0137761 3.9387576 
H 8.5104418 8.8944555 8.551419 
H 5.9926927 5.1973129 4.4956931 
O 5.2361419 5.0137761 3.9387576 
H 8.5104418 8.8944555 8.551419 
H 7.9926927 7.1973129 6.4956931 
O 5.2361419 5.0137761 3.9387576 
H 8.5104418 8.8944555 8.551419 
H 9.9926927 9.1973129 8.4956931 
O 7.2361419 7.0137761 5.9387576 
H 0.5104418 0.8944555 0.551419 
H 1.9926927 1.1973129 0.4956931 
O 7.2361419 7.0137761 5.9387576 
H 0.5104418 0.8944555 0.551419 
H 3.9926927 3.1973129 2.4956931 
O 7.2361419 7.0137761 5.9387576 
H 0.5104418 0.8944555 0.551419 
H 5.9926927 5.1973129 4.4956931 
O 7.2361419 7.0137761 5.9387576 
H 0.5104418 0.8944555 0.551419 
H 7.9926927 7.1973129 6.4956931 
O 7.2361419 7.0137761 5.9387576 
H 0.5104418 0.8944555 0.551419 
H 9.9926927 9.1973129 8.4956931 
O 7.2361419 7.0137761 5.9387576 
H 2.5104417999999997 2.8944555 2.551419 
H 1.9926927 1.1973129 0.4956931 
O 7.2361419 7.0137761 5.9387576 
H 2.5104417999999997 2.8944555 2.551419 
H 3.9926927 3.1973129 2.4956931 
O 7.2361419 7.0137761 5.9387576 
H 2.5104417999999997 2.8944555 2.551419 
H 5.9926927 5.1973129 4.4956931 
O 7.2361419 7.0137761 5.9387576 
H 2.5104417999999997 2.8944555 2.551419 
H 7.9926927 7.1973129 6.4956931 
O 7.2361419 7.0137761 5.9387576 
H 2.5104417999999997 2.8944555 2.551419 
H 9.9926927 9.1973129 8.4956931 
O 7.2361419 7.0137761 5.9387576 
H 4.5104418 4.8944555 4.551419 
H 1.9926927 1.1973129 0.4956931 
O 7.2361419 7.0137761 5.9387576 
H 4.5104418 4.8944555 4.551419 
H 3.9926927 3.1973129 2.4956931 
O 7.2361419 7.0137761 5.9387576 
H 4.5104418 4.8944555 4.551419 
H 5.9926927 5.1973129 4.4956931 
O 7.2361419 7.0137761 5.9387576 
H 4.5104418 4.8944555 4.551419 
H 7.9926927 7.1973129 6.4956931 
O 7.2361419 7.0137761 5.9387576 
H 4.5104418 4.8944555 4.551419 
H 9.9926927 9.1973129 8.4956931 
O 7.2361419 7.0137761 5.9387576 
H 6.5104418 6.8944555 6.551419 
H 1.9926927 1.1973129 0.4956931 
O 7.2361419 7.0137761 5.9387576 
H 6.5104418 6.8944555 6.551419 
H 3.9926927 3.1973129 2.4956931 
O 7.2361419 7.0137761 5.9387576 
H 6.5104418 6.8944555 6.551419 
H 5.9926927 5.1973129 4.4956931 
O 7.2361419 7.0137761 5.9387576 
H 6.5104418 6.8944555 6.551419 
H 7.9926927 7.1973129 6.4956931 
O 7.2361419 7.0137761 5.9387576 
H 6.5104418 6.8944555 6.551419 
H 9.9926927 9.1973129 8.4956931 
O 7.2361419 7.0137761 5.9387576 
H 8.5104418 8.8944555 8.551419 
H 1.9926927 1.1973129 0.4956931 
O 7.2361419 7.0137761 5.9387576 
H 8.5104418 8.8944555 8.551419 
H 3.9926927 3.1973129 2.4956931 
O 7.2361419 7.0137761 5.9387576 
H 8.5104418 8.8944555 8.551419 
H 5.9926927 5.1973129 4.4956931 
O 7.2361419 7.0137761 5.9387576 
H 8.5104418 8.8944555 8.551419 
H 7.9926927 7.1973129 6.4956931 
O 7.2361419 7.0137761 5.9387576 
H 8.5104418 8.8944555 8.551419 
H 9.9926927 9.1973129 8.4956931 
O 9.2361419 9.0137761 7.9387576 
H 0.5104418 0.8944555 0.551419 
H 1.9926927 1.1973129 0.4956931 
O 9.2361419 9.0137761 7.9387576 
H 0.5104418 0.8944555 0.551419 
H 3.9926927 3.1973129 2.4956931 
O 9.2361419 9.0137761 7.9387576 
H 0.5104418 0.8944555 0.551419 
H 5.9926927 5.1973129 4.4956931 
O 9.2361419 9.0137761 7.9387576 
H 0.5104418 0.8944555 0.551419 
H 7.9926927 7.1973129 6.4956931 
O 9.2361419 9.0137761 7.9387576 
H 0.5104418 0.8944555 0.551419 
H 9.9926927 9.1973129 8.4956931 
O 9.2361419 9.0137761 7.9387576 
H 2.5104417999999997 2.8944555 2.551419 
H 1.9926927 1.1973129 0.4956931 
O 9.2361419 9.0137761 7.9387576 
H 2.5104417999999997 2.8944555 2.551419 
H 3.9926927 3.1973129 2.4956931 
O 9.2361419 9.0137761 7.9387576 
H 2.5104417999999997 2.8944555 2.551419 
H 5.9926927 5.1973129 4.4956931 
O 9.2361419 9.0137761 7.9387576 
H 2.5104417999999997 2.8944555 2.551419 
H 7.9926927 7.1973129 6.4956931 
O 9.2361419 9.0137761 7.9387576 
H 2.5104417999999997 2.8944555 2.551419 
H 9.9926927 9.1973129 8.4956931 
O 9.2361419 9.0137761 7.9387576 
H 4.5104418 4.8944555 4.551419 
H 1.9926927 1.1973129 0.4956931 
O 9.2361419 9.0137761 7.9387576 
H 4.5104418 4.8944555 4.551419 
H 3.9926927 3.1973129 2.4956931 
O 9.2361419 9.0137761 7.9387576 
H 4.5104418 4.8944555 4.551419 
H 5.9926927 5.1973129 4.4956931 
O 9.2361419 9.0137761 7.9387576 
H 4.5104418 4.8944555 4.551419 
H 7.9926927 7.1973129 6.4956931 
O 9.2361419 9.0137761 7.9387576 
H 4.5104418 4.8944555 4.551419 
H 9.9926927 9.1973129 8.4956931 
O 9.2361419 9.0137761 7.9387576 
H 6.5104418 6.8944555 6.551419 
H 1.9926927 1.1973129 0.4956931 
O 9.2361419 9.0137761 7.9387576 
H 6.5104418 6.8944555 6.551419 
H 3.9926927 3.1973129 2.4956931 
O 9.2361419 9.0137761 7.9387576 
H 6.5104418 6.8944555 6.551419 
H 5.9926927 5.1973129 4.4956931 
O 9.2361419 9.0137761 7.9387576 
H 6.5104418 6.8944555 6.551419 
H 7.9926927 7.1973129 6.4956931 
O 9.2361419 9.0137761 7.9387576 
H 6.5104418 6.8944555 6.551419 
H 9.9926927 9.1973129 8.4956931 
O 9.2361419 9.0137761 7.9387576 
H 8.5104418 8.8944555 8.551419 
H 1.9926927 1.1973129 0.4956931 
O 9.2361419 9.0137761 7.9387576 
H 8.5104418 8.8944555 8.551419 
H 3.9926927 3.1973129 2.4956931 
O 9.2361419 9.0137761 7.9387576 
H 8.5104418 8.8944555 8.551419 
H 5.9926927 5.1973129 4.4956931 
O 9.2361419 9.0137761 7.9387576 
H 8.5104418 8.8944555 8.551419 
H 7.9926927 7.1973129 6.4956931 
O 9.2361419 9.0137761 7.9387576 
H 8.5104418 8.8944555 8.551419 
H 9.9926927 9.1973129 8.4956931 
375
Timestep: 2 
O -8.763980725399502 -8.98630222216631 9.938758374392307 
H -9.489686284598397 -9.105713169560925 -9.44873414450469 
H -8.007505190902915 -8.80282120724228 -9.504431949720189 
O -8.76395175812387 -8.986332663174382 9.938695796829771 
H -9.489693838126904 -9.105838985070516 -9.448749014392186 
H -6.007332765864181 -6.8027855005580635 -7.504510784265016 
O -8.7639715771545 -8.986457034698866 9.938631986078548 
H -9.489652125833627 -9.105758412375783 -9.448895340851513 
H -4.007469202596161 -4.802869949775178 -5.504395105997008 
O -8.76408008553575 -8.986309498441809 9.938302333493219 
H -9.48965980193834 -9.105911459441941 -9.448749615399167 
H -2.0075256076521493 -2.8029182342389074 -3.5044127481930207 
O -8.76408290405585 -8.986540154174612 9.938558672744534 
H -9.489782184130867 -9.105701258779153 -9.448958391028201 
H -0.007545752458444355 -0.8029623039195162 -1.5044865042060493 
O -8.76402371043813 -8.98634785982243 9.938575521827788 
H -7.489780150974466 -7.1056403145822555 -7.448726206678931 
H -8.007433250129608 -8.802789281861378 -9.50443167026403 
O -8.763924067155795 -8.986360366858461 9.938423243663054 
H -7.489659557693962 -7.105660356744388 -7.448861272695496 
H -6.007392881804847 -6.8028247276499645 -7.504432163904475 
O -8.764021737039663 -8.986297060810859 9.938639800560889 
H -7.489609876709194 -7.105645465888761 -7.44877001198732 
H -4.007471733559873 -4.8028960241797884 -5.504536249415374 
O -8.764143732883994 -8.986316218243706 9.938573710305912 
H -7.489696005418868 -7.105731144805572 -7.448658603836518 
H -2.007620281198311 -2.8028180938159224 -3.504467340974469 
O -8.763983297198926 -8.98629247533977 9.938469403881184 
H -7.489712026811832 -7.105869274039711 -7.448817793466214 
H -0.007439785210555883 -0.8029043342975051 -1.50430518126422 
O -8.763959330903274 -8.98635063975926 9.938455658965575 
H -5.489703837549309 -5.10562895429944 -5.4486904017229145 
H -8.00757680991294 -8.802830889295304 -9.504443673493986 
O -8.764062892500128 -8.986432975580884 9.938638805212554 
H -5.489768968832236 -5.105953831821565 -5.44860851705183 
H -6.007560712399307 -6.80266957001057 -7.504478193228645 
O -8.763944358203915 -8.986385570292473 9.93850341173156 
H -5.489618713401088 -5.105748452664256 -5.448688901277475 
H -4.007521921519004 -4.802836690661231 -5.504420540204105 
O -8.763854595462655 -8.986411209269631 9.938272957955641 
H -5.489706202528178 -5.1059071808333885 -5.4488273391780675 
H -2.0075798944992647 -2.802749202860042 -3.504447827252296 
O -8.764185003368771 -8.986371159729307 9.938762810422288 
H -5.489811366826429 -5.105841240464384 -5.448876085924664 
H -0.007530810608152194 -0.8029296447469942 -1.5044602045973772 
O -8.764117606843351 -8.986425705886276 9.938607703706806 
H -3.4898810884516935 -3.1057815920022165 -3.448734812346596 
H -8.007521288536426 -8.8027854194447 -9.504679538162495 
O -8.76396629212324 -8.986440939314264 9.938741063729928 
H -3.4896978244780152 -3.105750415141995 -3.4489298353051883 
H -6.007398257485772 -6.802915918324971 -7.504506456889294 
O -8.763864305403093 -8.986443198868031 9.938644752037101 
H -3.4896733284369486 -3.1057667441387062 -3.4488372869470325 
H -4.007626947023995 -4.803029397873213 -5.504542460295433 
O -8.76391945979373 -8.986320621198706 9.938556262521253 
H -3.489688356338635 -3.105762809227781 -3.4488943410326556 
H -2.0074623507127747 -2.802923694487892 -3.5043513613116364 
O -8.764103782845488 -8.986328261871881 9.938587583090026 
H -3.489880128142077 -3.1056101684011868 -3.448752158509083 
H -0.007587022198402238 -0.8028969389363336 -1.5044192228995552 
O -8.764140240329635 -8.986472472713306 9.93868406785242 
H -1.489695554219347 -1.1056075510005954 -1.4487760447519662 
H -8.007436679451427 -8.802869397316716 -9.504440724296813 
O -8.763975183670164 -8.986436678358551 9.938449587985717 
H -1.4895504301283804 -1.1057908759416168 -1.4488483570982567 
H -6.007331707851636 -6.802929681093388 -7.504405898719643 
O -8.764042482460674 -8.986666151624116 9.938488402573423 
H -1.489838963740663 -1.1056776752009618 -1.4487010052631266 
H -4.0074078131792765 -4.8028038721809025 -5.504451351644136 
O -8.76405147603779 -8.986349524712981 9.938574346658585 
H -1.4896379113799636 -1.105739158161402 -1.4488461063769282 
H -2.007509824285263 -2.802875948536312 -3.504293164780657 
O -8.76412294805903 -8.986475010446535 9.938659854903937 
H -1.4897844797549773 -1.1057336285560453 -1.4488829527696865 
H -0.007592341726279983 -0.8028006725278445 -1.5042803866214136 
O -6.76413319543004 -6.986531436072008 -8.061509578497928 
H -9.489599681749304 -9.105898198202235 -9.448920571625004 
H -8.007382159719516 -8.802933939848426 -9.504387511423802 
O -6.764258102978628 -6.986325673556216 -8.06145962562375 
H -9.489661392267482 -9.105838232769246 -9.448697347448025 
H -6.007450415884114 -6.802918406933101 -7.5045735997334 
O -6.764056546213719 -6.9864368849741965 -8.061433377484015 
H -9.489770011508075 -9.105587685987024 -9.448840097651091 
H -4.0074590912934855 -4.8029091336923555 -5.504519079234139 
O -6.764115364934735 -6.986300422954573 -8.061355518249472 
H -9.48979325787204 -9.10579210268569 -9.448763505707628 
H -2.00765982960227 -2.8029791717185946 -3.504539083327182 
O -6.764182370147349 -6.986345237956321 -8.061260244538992 
H -9.489735914027623 -9.105753920637353 -9.448428400490258 
H -0.0075712495325337414 -0.8027612819540355 -1.504470385915715 
O -6.76407586189821 -6.986588927658463 -8.061299343291775 
H -7.489669618870719 -7.105606901773353 -7.448688192099975 
H -8.007342448254755 -8.802836533722797 -9.50451555015344 
O -6.763814692011012 -6.986367513446764 -8.061430150822623 
H -7.48974435939518 -7.105745216559944 -7.4486812078012345 
H -6.007366141605557 -6.802665534451435 -7.504455364657769 
O -6.763873930021768 -6.986421543828278 -8.061275973423939 
H -7.489631136105778 -7.1056353487875565 -7.448921723278682 
H -4.007464957535071 -4.8028306522737925 -5.50449544022375 
O -6.764030499351799 -6.98637994898995 -8.061451034512608 
H -7.489778111798337 -7.105520204431869 -7.448606856393965 
H -2.007350763534018 -2.802891882893692 -3.5044674569615584 
O -6.763915563598266 -6.986242623704255 -8.061400800932107 
H -7.4897056145823395 -7.105704388492862 -7.448650816883379 
H -0.007586747255489357 -0.8029399404253788 -1.5046264761791495 
O -6.764154165035334 -6.986544388411911 -8.061489650803106 
H -5.489648099210192 -5.1056820166771 -5.448868424119537 
H -8.007747433686173 -8.802924848570651 -9.50441360752529 
O -6.763999473682109 -6.986244063216663 -8.061436275337986 
H -5.4897303086168545 -5.105479664238825 -5.448741371210819 
H -6.007498049349994 -6.802842293795457 -7.504715339025329 
O -6.764177649542734 -6.986379788987117 -8.061410672444508 
H -5.489773044991609 -5.105654026616455 -5.448612519206165 
H -4.007340472567799 -4.8027677059409015 -5.504516448957641 
O -6.7640966097539055 -6.986517024913137 -8.061449328974907 
H -5.489652565246655 -5.105770654838026 -5.448686718325716 
H -2.007426152036647 -2.8028033500705014 -3.5044824045597016 
O -6.7639449608127995 -6.986345869436676 -8.061380056476136 
H -5.4896786260878265 -5.105572238789468 -5.4488309171805955 
H -0.0075498187041649345 -0.8028080312164967 -1.5045191048837765 
O -6.764082449496532 -6.98661459408067 -8.06150891881744 
H -3.4899349924132554 -3.1054317759691275 -3.4490985003047623 
H -8.007682583713573 -8.80277797366032 -9.504473524158907 
O -6.763945921563591 -6.986407350495665 -8.061416432786597 
H -3.4896580778724893 -3.1057176639128894 -3.448743101373557 
H -6.007571280034585 -6.802904687111786 -7.5045831139809405 
O -6.764368481237293 -6.98639437094883 -8.061342955706055 
H -3.4896729662303034 -3.1056336446105 -3.4486408759842533 
H -4.007420650318008 -4.802923760264061 -5.504547854979813 
O -6.764186258229119 -6.98646962693771 -8.061338000087485 
H -3.4895940434285215 -3.105666104990658 -3.448704300473513 
H -2.0075497344370774 -2.8027253438929103 -3.5044074960224876 
O -6.763850090304691 -6.986358721937323 -8.06147839806681 
H -3.489686211595199 -3.1057511005050333 -3.4487411870237157 
H -0.007449426064550124 -0.8028132172846121 -1.5045065333597893 
O -6.764013228255992 -6.986310168136265 -8.06139969842859 
H -1.4898763809962539 -1.1057216406917014 -1.4485212766205944 
H -8.007529735068884 -8.802897679587419 -9.504416725114595 
O -6.764011277150198 -6.986516034013562 -8.061342957764039 
H -1.489909764790461 -1.1057097046520923 -1.448718477617149 
H -6.0075693208374314 -6.802776525186385 -7.5042229463413275 
O -6.764183749844483 -6.9862442838530905 -8.06146661865425 
H -1.4896962393466264 -1.105761589304171 -1.4487009544919687 
H -4.007571208905756 -4.8029136303233155 -5.504560888940402 
O -6.76412059521278 -6.986415227001633 -8.061378955145349 
H -1.4897101061841322 -1.1056807100462898 -1.4485849140642522 
H -2.0075277516912475 -2.8029051579670057 -3.504504758465365 
O -6.763959886017236 -6.986387108065225 -8.061603455169212 
H -1.4896808848674787 -1.105830723541386 -1.448782794537312 
H -0.00755377181230088 -0.8027808049434881 -1.5045822226491037 
O -4.763783731071147 -4.986333433857076 -6.061508626107644 
H -9.48970458426448 -9.105833443355097 -9.448890004565516 
H -8.007364496485451 -8.802782144010363 -9.504631444629835 
O -4.763990750853356 -4.9865299150874405 -6.061342300589283 
H -9.489862474767996 -9.105815750603224 -9.448642012088785 
H -6.007433735901394 -6.802882646804459 -7.504573914051408 
O -4.764043849193174 -4.9862246781498625 -6.061701550123281 
H -9.489710099953024 -9.105908236089668 -9.448792995276197 
H -4.0076293069368925 -4.802991309436163 -5.504434287557817 
O -4.7641286915627905 -4.986439631697655 -6.061538099227367 
H -9.489962800445067 -9.105588365194919 -9.44872490954618 
H -2.007567652800831 -2.8029693941680964 -3.504695823297629 
O -4.76411059608006 -4.9865213538138 -6.0615148071939124 
H -9.4898777558867 -9.105760161843348 -9.448680322639863 
H -0.007521489631594491 -0.8027707377259237 -1.5044060719081305 
O -4.764045712024852 -4.986306714365481 -6.061613908299388 
H -7.489556814442667 -7.105611177159123 -7.448789881271843 
H -8.007607081942318 -8.802919567946013 -9.504430153119714 
O -4.763997447133234 -4.986246880422847 -6.061359663950386 
H -7.489722946103585 -7.1057041564763415 -7.448795786121348 
H -6.007346238083508 -6.802934115184106 -7.504522315068639 
O -4.76426339592812 -4.986467654925648 -6.061493241552064 
H -7.489776297290684 -7.105746579594401 -7.448677781475997 
H -4.007224570374659 -4.802771695961294 -5.504706730963832 
O -4.763993150201422 -4.986373717892175 -6.061448011260222 
H -7.489883126596609 -7.105757805463427 -7.448685039232118 
H -2.0075390604421806 -2.802886184737722 -3.5045469914744976 
O -4.764046632484851 -4.986348371688672 -6.0613585025715455 
H -7.489808241006671 -7.105816384290147 -7.448725021437081 
H -0.007503260873695794 -0.8029498602760814 -1.5043184310130204 
O -4.764041166845067 -4.986502285325807 -6.0612455382369905 
H -5.489682816984779 -5.105776959345364 -5.448776317245091 
H -8.007463767733228 -8.803099683367776 -9.504521517356267 
O -4.763975783946244 -4.986425999813388 -6.061604787662267 
H -5.489639646166128 -5.105767303491394 -5.448719045255948 
H -6.0075006570157035 -6.802810645306992 -7.504500459303303 
O -4.763863165668622 -4.986439244225299 -6.061256587352405 
H -5.48981356126021 -5.1056838477447215 -5.448923090867709 
H -4.007545319209618 -4.802650522493999 -5.50446755049539 
O -4.764059391153005 -4.986233227817011 -6.061320236923933 
H -5.489744066876577 -5.105904407762941 -5.448745722210854 
H -2.0074374264472423 -2.8029693408754293 -3.5045852839867866 
O -4.764050819379056 -4.9863635645762034 -6.061207165892875 
H -5.4897763463891645 -5.105596140234912 -5.44873384114874 
H -0.007619082395761367 -0.8029175926643983 -1.5044975938836078 
O -4.764111388954775 -4.986544165789144 -6.061586805733032 
H -3.489834874480577 -3.1058838596003158 -3.448741997813838 
H -8.007552736912075 -8.802975997015594 -9.504547424921444 
O -4.764045977591979 -4.986371457857348 -6.061314695413307 
H -3.4897062093830433 -3.105679529062253 -3.448707771064287 
H -6.007279054642975 -6.8025993906230315 -7.504387466964442 
O -4.764051408057605 -4.986249572103197 -6.061577190827418 
H -3.4898454778526142 -3.1056487432964976 -3.4487207004552083 
H -4.00751068794389 -4.802669054523319 -5.504519964586289 
O -4.76387842735171 -4.986465688122601 -6.061449803300652 
H -3.489726954249482 -3.105784084334167 -3.4487301645482757 
H -2.007462229623128 -2.802791860429913 -3.50450403155226 
O -4.764139916785147 -4.986652699038559 -6.061464725416962 
H -3.489695157877864 -3.1057965152269267 -3.4487165828542947 
H -0.007288341422235334 -0.8029362183634543 -1.504547564009508 
O -4.763969988547877 -4.9863384477682375 -6.0614937010231085 
H -1.4897968550968805 -1.1057007142531496 -1.4487151810227523 
H -8.007550610347787 -8.802727646536859 -9.504586745448167 
O -4.763934974859954 -4.986482106598912 -6.061649238232006 
H -1.4897756466056435 -1.1056930821542021 -1.4486453371133798 
H -6.007531464915875 -6.802817059707313 -7.5044728643146845 
O -4.764071922861014 -4.986487970615538 -6.06155143070713 
H -1.489633709053356 -1.1055744031453134 -1.44873003037333 
H -4.00737014007028 -4.802699162045007 -5.50451301071536 
O -4.763905859990222 -4.986439452624089 -6.061230287457807 
H -1.4899166979279048 -1.1057064165112447 -1.4488359089002092 
H -2.0073947892299397 -2.8027780285659087 -3.504432569900085 
O -4.763880939770016 -4.986341684249472 -6.061484574739213 
H -1.4898025058872406 -1.1057400263070285 -1.4487091898796116 
H -0.007505574498949841 -0.8029184519370798 -1.5046241227139738 
O -2.7641975389113993 -2.986218090806199 -4.061315739904519 
H -9.489560142787669 -9.105835671027052 -9.448730625307821 
H -8.007221182699938 -8.802973456416208 -9.504667287036494 
O -2.76411750786374 -2.986313142163165 -4.06140210343099 
H -9.489749832825554 -9.105744455398304 -9.448796527618837 
H -6.0074568814418505 -6.802759873357912 -7.504538288117252 
O -2.7638965303502596 -2.9866028515799687 -4.061476441435322 
H -9.489741893527288 -9.105808330192758 -9.44857902259127 
H -4.007235529152406 -4.8027734007496194 -5.504553105353458 
O -2.7640606113827815 -2.9865292598774804 -4.061440166103868 
H -9.489845050829162 -9.105562660779256 -9.44869237323026 
H -2.007576383560407 -2.8029521954043206 -3.5045314981144484 
O -2.7642282477657822 -2.986273290732095 -4.061491682282109 
H -9.489661195040563 -9.105831142571787 -9.448786977650933 
H -0.007518599369134904 -0.8028811178844055 -1.5045860221848297 
O -2.7639364995011455 -2.98650254235603 -4.061256462648543 
H -7.489604636285834 -7.1056563873688035 -7.448667858801457 
H -8.007475413676465 -8.802877978474072 -9.504450376399033 
O -2.763898444021688 -2.9865193126591585 -4.061456248039314 
H -7.489760388110321 -7.10573760279595 -7.448715613479051 
H -6.007468726169836 -6.8027584042567995 -7.504428884197226 
O -2.764103300089964 -2.9862828841161386 -4.061520481053456 
H -7.489759932107033 -7.1056552469659415 -7.448722233756538 
H -4.007590024823622 -4.802865953536927 -5.504414026575767 
O -2.7639990261277516 -2.9864065117452956 -4.0612994370210584 
H -7.489687801553685 -7.105870704658136 -7.448677814188844 
H -2.007620602998843 -2.8029954475370804 -3.50444967029577 
O -2.764047088504042 -2.986647727499145 -4.06133749539617 
H -7.489739298247139 -7.105716389820534 -7.4487538945733895 
H -0.00756179825478398 -0.8027998046511566 -1.5045070631207729 
O -2.7640763428822215 -2.986325318688449 -4.061641823255576 
H -5.489767704579666 -5.105767433119883 -5.448686218494446 
H -8.007426140077962 -8.803036819256032 -9.50455827403995 
O -2.763772977837731 -2.9864294700892335 -4.061518271459813 
H -5.489725916276153 -5.105828631615454 -5.44879443801925 
H -6.007444546428938 -6.802842679495189 -7.504607769975902 
O -2.763987868900543 -2.986484961747103 -4.061408459020446 
H -5.489687278760568 -5.105674129147692 -5.448765695066423 
H -4.0075453082010295 -4.802739393364783 -5.504679188635878 
O -2.7640419290928078 -2.986383350428519 -4.061430826588678 
H -5.489737018652036 -5.105779161606367 -5.448786768742866 
H -2.007449308625583 -2.803088059852339 -3.5045584767273823 
O -2.7640073323257264 -2.9862927959018153 -4.0613570794158145 
H -5.489647729944435 -5.10579981233974 -5.448761738422498 
H -0.007539601183792044 -0.8028763983684524 -1.5045336437528647 
O -2.7641768322129314 -2.9861254549434753 -4.061732667613972 
H -3.489537477125979 -3.105704017360595 -3.4486534457293097 
H -8.007454058225854 -8.802812181575954 -9.504562251687563 
O -2.764052911008661 -2.986315802879492 -4.061413281484307 
H -3.489790797053711 -3.1055255166938265 -3.448787334869408 
H -6.0075348363879595 -6.802818973188657 -7.50449894777569 
O -2.7639737822532444 -2.986365968138257 -4.061658789823825 
H -3.4898850596603204 -3.105619030279981 -3.448670204526298 
H -4.007421370286826 -4.8027783911877036 -5.504514126955013 
O -2.7641071836781324 -2.9865062028342955 -4.061480315910415 
H -3.4897633331064677 -3.1057558736363804 -3.4486844178675273 
H -2.007520516907425 -2.8027404261442994 -3.5045000760356464 
O -2.7640219146812237 -2.9865761653368423 -4.061620792940303 
H -3.489790683310212 -3.1055756065917945 -3.4486718111743144 